    -----------------------------------------------------------------------
          Psi4: An Open-Source Ab Initio Electronic Structure Package
                              Psi4 1.0.54 Driver

                          Git: Rev {master} 8d4cec3 dirty

    J. M. Turney, A. C. Simmonett, R. M. Parrish, E. G. Hohenstein,
    F. A. Evangelista, J. T. Fermann, B. J. Mintz, L. A. Burns, J. J. Wilke,
    M. L. Abrams, N. J. Russ, M. L. Leininger, C. L. Janssen, E. T. Seidl,
    W. D. Allen, H. F. Schaefer, R. A. King, E. F. Valeev, C. D. Sherrill,
    and T. D. Crawford, WIREs Comput. Mol. Sci. 2, 556-565 (2012)
    (doi: 10.1002/wcms.93)

                         Additional Contributions by
    A. E. DePrince, U. Bozkaya, A. Yu. Sokolov, D. G. A. Smith, R. Di Remigio,
    R. M. Richard, J. F. Gonthier, H. R. McAlexander, M. Saitow, and
    B. P. Pritchard
    -----------------------------------------------------------------------


    Psi4 started on: Tue Nov 15 18:06:23 2016

    Process ID:  17674
    PSI4DATADIR: /home/markus/anaconda3/envs/py2/share/psi4
    Memory level set to 256.000 MB

  ==> Input File <==

--------------------------------------------------------------------------
#########################################################
#   Example from the psi4 homepage:                     #
#   http://psicode.org/psi4manual/master/tutorial.html  #
##########################################################

#! Optimization followed by frequencies H2O HF/cc-pVDZ

memory 250 mb

molecule h2o {
  O 
  H 1 0.96
  H 1 0.96 2 104.5
}

set basis cc-pVDZ
optimize('scf')
scf_e, scf_wfn = frequencies('scf', return_wfn=True, dertype=1)
--------------------------------------------------------------------------

  Memory set to 250.000 MiB by Python script.
gradient() will perform analytic gradient computation.
    There are an even number of electrons - assuming singlet.
    Specify the multiplicity in the molecule input block.


*** tstart() called on markus-GA-MA770-UD3
*** at Tue Nov 15 18:06:23 2016


         ---------------------------------------------------------
                                   SCF
            by Justin Turney, Rob Parrish, and Andy Simmonett
                              RHF Reference
                        1 Threads,    250 MiB Core
         ---------------------------------------------------------

  ==> Geometry <==

    Molecular point group: c2v
    Full point group: C2v

    Geometry (in Angstrom), charge = 0, multiplicity = 1:

       Center              X                  Y                   Z               Mass       
    ------------   -----------------  -----------------  -----------------  -----------------
           O          0.000000000000     0.000000000000    -0.065775570538    15.994914619560
           H          0.000000000000    -0.759061990794     0.521953018295     1.007825032070
           H          0.000000000000     0.759061990794     0.521953018295     1.007825032070

  Running in c2v symmetry.

  Rotational constants: A =     27.26297  B =     14.51533  C =      9.47217 [cm^-1]
  Rotational constants: A = 817323.20514  B = 435158.59817  C = 283968.37324 [MHz]
  Nuclear repulsion =    9.168193260387577

  Charge       = 0
  Multiplicity = 1
  Electrons    = 10
  Nalpha       = 5
  Nbeta        = 5

  ==> Algorithm <==

  SCF Algorithm Type is DF.
  DIIS enabled.
  MOM disabled.
  Fractional occupation disabled.
  Guess Type is SAD.
  Energy threshold   = 1.00e-08
  Density threshold  = 1.00e-08
  Integral threshold = 0.00e+00

  ==> Primary Basis <==

  Basis Set: CC-PVDZ
    Number of shells: 12
    Number of basis function: 24
    Number of Cartesian functions: 25
    Spherical Harmonics?: true
    Max angular momentum: 2

  ==> Pre-Iterations <==

   -------------------------------------------------------
    Irrep   Nso     Nmo     Nalpha   Nbeta   Ndocc  Nsocc
   -------------------------------------------------------
     A1        11      11       0       0       0       0
     A2         2       2       0       0       0       0
     B1         4       4       0       0       0       0
     B2         7       7       0       0       0       0
   -------------------------------------------------------
    Total      24      24       5       5       5       0
   -------------------------------------------------------

  ==> Integral Setup <==

  ==> DFJK: Density-Fitted J/K Matrices <==

    J tasked:                  Yes
    K tasked:                  Yes
    wK tasked:                  No
    OpenMP threads:              1
    Integrals threads:           1
    Memory (MB):               178
    Algorithm:                Core
    Integral Cache:           NONE
    Schwarz Cutoff:          1E-12
    Fitting Condition:       1E-12

   => Auxiliary Basis Set <=

  Basis Set: 
    Number of shells: 42
    Number of basis function: 116
    Number of Cartesian functions: 131
    Spherical Harmonics?: true
    Max angular momentum: 3

  Minimum eigenvalue in the overlap matrix is 3.4377086883E-02.
  Using Symmetric Orthogonalization.
  SCF Guess: Superposition of Atomic Densities via on-the-fly atomic UHF.

  ==> Iterations <==

                           Total Energy        Delta E     RMS |[F,P]|

   @DF-RHF iter   0:   -76.01816596059906   -7.60182e+01   1.22293e-01 
   @DF-RHF iter   1:   -75.99046162409051    2.77043e-02   2.06467e-02 
   @DF-RHF iter   2:   -76.01888650229357   -2.84249e-02   1.02946e-02 DIIS
   @DF-RHF iter   3:   -76.02605652645055   -7.17002e-03   1.74920e-03 DIIS
   @DF-RHF iter   4:   -76.02657506160284   -5.18535e-04   4.96612e-04 DIIS
   @DF-RHF iter   5:   -76.02662963068967   -5.45691e-05   1.02068e-04 DIIS
   @DF-RHF iter   6:   -76.02663266142827   -3.03074e-06   1.58217e-05 DIIS
   @DF-RHF iter   7:   -76.02663273400741   -7.25791e-08   2.02450e-06 DIIS
   @DF-RHF iter   8:   -76.02663273488376   -8.76355e-10   3.53260e-07 DIIS
   @DF-RHF iter   9:   -76.02663273490799   -2.42295e-11   3.16177e-08 DIIS
   @DF-RHF iter  10:   -76.02663273490815   -1.56319e-13   4.48359e-09 DIIS

  ==> Post-Iterations <==

    Orbital Energies (a.u.)
    -----------------------

    Doubly Occupied:                                                      

       1A1   -20.550925     2A1    -1.335311     1B2    -0.697803  
       3A1    -0.566087     1B1    -0.492948  

    Virtual:                                                              

       4A1     0.185107     2B2     0.255846     3B2     0.787336  
       5A1     0.851826     6A1     1.163855     2B1     1.200424  
       4B2     1.253573     7A1     1.445291     1A2     1.476011  
       3B1     1.674661     8A1     1.868110     5B2     1.932579  
       6B2     2.446529     9A1     2.483817     4B1     3.283958  
       2A2     3.336669    10A1     3.507634    11A1     3.863421  
       7B2     4.144760  

    Final Occupation by Irrep:
             A1    A2    B1    B2 
    DOCC [     3,    0,    1,    1 ]

  Energy converged.

  @DF-RHF Final Energy:   -76.02663273490815

   => Energetics <=

    Nuclear Repulsion Energy =              9.1681932603875769
    One-Electron Energy =                -123.1035071559046230
    Two-Electron Energy =                  37.9086811606089142
    DFT Exchange-Correlation Energy =       0.0000000000000000
    Empirical Dispersion Energy =           0.0000000000000000
    PCM Polarization Energy =               0.0000000000000000
    EFP Energy =                            0.0000000000000000
    Total Energy =                        -76.0266327349081337


  Saving occupied orbitals to File 180.

*** tstop() called on markus-GA-MA770-UD3 at Tue Nov 15 18:06:24 2016
Module time:
	user time   =       0.36 seconds =       0.01 minutes
	system time =       0.00 seconds =       0.00 minutes
	total time  =          1 seconds =       0.02 minutes
Total time:
	user time   =       0.36 seconds =       0.01 minutes
	system time =       0.00 seconds =       0.00 minutes
	total time  =          1 seconds =       0.02 minutes


Properties will be evaluated at   0.000000,   0.000000,   0.000000 Bohr

Properties computed using the SCF density matrix

  Nuclear Dipole Moment: (a.u.)
     X:     0.0000      Y:     0.0000      Z:     0.9783

  Electronic Dipole Moment: (a.u.)
     X:     0.0000      Y:     0.0000      Z:    -0.1680

  Dipole Moment: (a.u.)
     X:     0.0000      Y:     0.0000      Z:     0.8103     Total:     0.8103

  Dipole Moment: (Debye)
     X:     0.0000      Y:     0.0000      Z:     2.0595     Total:     2.0595


*** tstart() called on markus-GA-MA770-UD3
*** at Tue Nov 15 18:06:24 2016


         ------------------------------------------------------------
                                   SCF GRAD                          
                          Rob Parrish, Justin Turney,                
                       Andy Simmonett, and Alex Sokolov              
         ------------------------------------------------------------

  ==> Geometry <==

    Molecular point group: c2v
    Full point group: C2v

    Geometry (in Angstrom), charge = 0, multiplicity = 1:

       Center              X                  Y                   Z               Mass       
    ------------   -----------------  -----------------  -----------------  -----------------
           O          0.000000000000     0.000000000000    -0.065775570538    15.994914619560
           H          0.000000000000    -0.759061990794     0.521953018295     1.007825032070
           H          0.000000000000     0.759061990794     0.521953018295     1.007825032070

  Nuclear repulsion =    9.168193260387577

  ==> Basis Set <==

  Basis Set: CC-PVDZ
    Number of shells: 12
    Number of basis function: 24
    Number of Cartesian functions: 25
    Spherical Harmonics?: true
    Max angular momentum: 2

  ==> DFJKGrad: Density-Fitted SCF Gradients <==

    Gradient:                    1
    J tasked:                  Yes
    K tasked:                  Yes
    wK tasked:                  No
    OpenMP threads:              1
    Integrals threads:           1
    Memory (MB):               178
    Schwarz Cutoff:          0E+00
    Fitting Condition:       1E-12

   => Auxiliary Basis Set <=

  Basis Set: 
    Number of shells: 42
    Number of basis function: 116
    Number of Cartesian functions: 131
    Spherical Harmonics?: true
    Max angular momentum: 3


  -Total Gradient:
     Atom            X                  Y                   Z
    ------   -----------------  -----------------  -----------------
       1       -0.000000000000     0.000000000000    -0.017641628773
       2        0.000000000000    -0.012438415659     0.008820814387
       3       -0.000000000000     0.012438415659     0.008820814387


*** tstop() called on markus-GA-MA770-UD3 at Tue Nov 15 18:06:24 2016
Module time:
	user time   =       0.25 seconds =       0.00 minutes
	system time =       0.02 seconds =       0.00 minutes
	total time  =          0 seconds =       0.00 minutes
Total time:
	user time   =       0.62 seconds =       0.01 minutes
	system time =       0.02 seconds =       0.00 minutes
	total time  =          1 seconds =       0.02 minutes

			-----------------------------------------
			 OPTKING 2.0: for geometry optimizations 
			  - R.A. King,  Bethel University        
			-----------------------------------------

	Internal coordinates to be generated automatically.
	Detected frag 1 with atoms:  1 2 3
	---Fragment 1 Bond Connectivity---
	 1 : 2 3
	 2 : 1
	 3 : 1

	---Fragment 1 Geometry and Gradient---
	 O           0.0000000000        0.0000000000       -0.1242978146
	 H           0.0000000000       -1.4344192805        0.9863482588
	 H           0.0000000000        1.4344192805        0.9863482588
	            -0.0000000000        0.0000000000       -0.0176416288
	             0.0000000000       -0.0124384157        0.0088208144
	            -0.0000000000        0.0124384157        0.0088208144

	Previous optimization step data not found.  Starting new optimization.

	---Fragment 1 Intrafragment Coordinates---
	 - Coordinate -           - BOHR/RAD -       - ANG/DEG -
	 R(1,2)           =         1.814137	       0.960000
	 R(1,3)           =         1.814137	       0.960000
	 B(2,1,3)         =         1.823869	     104.500000

	Current energy   :       -76.0266327349

	Generating empirical Hessian (Schlegel '84) for each fragment.
	Taking RFO optimization step.
	Going to follow RFO solution 1.
	Using RFO vector 1.
	Norm of target step-size    0.03945
	Projected energy change by RFO approximation:        -0.0003936566

	Back-transformation to cartesian coordinates...
	Successfully converged to displaced geometry.

	--- Internal Coordinate Step in ANG or DEG, aJ/ANG or AJ/DEG ---
	 ---------------------------------------------------------------------------
	   Coordinate                Previous        Force       Change         New 
	   ----------                --------       ------       ------       ------
	    1 R(1,2)          =      0.960000    -0.125518    -0.014511     0.945489
	    2 R(1,3)          =      0.960000    -0.125518    -0.014511     0.945489
	    3 B(2,1,3)        =    104.500000    -0.000088    -0.413903   104.086097
	 ---------------------------------------------------------------------------
	Successfully symmetrized geometry.

  ==> Convergence Check <==

  Measures of convergence in internal coordinates in au.
  Criteria marked as inactive (o), active & met (*), and active & unmet ( ).
  --------------------------------------------------------------------------------------------- ~
   Step     Total Energy     Delta E     MAX Force     RMS Force      MAX Disp      RMS Disp    ~
  --------------------------------------------------------------------------------------------- ~
    Convergence Criteria    1.00e-06 *    3.00e-04 *             o    1.20e-03 *             o  ~
  --------------------------------------------------------------------------------------------- ~
      1     -76.02663273   -7.60e+01      1.52e-02      1.25e-02 o    2.74e-02      2.28e-02 o  ~
  ---------------------------------------------------------------------------------------------

	Writing optimization data to binary file.
	Structure for next step:
	Cartesian Geometry (in Angstrom)
	    O     0.0000000000   0.0000000000  -0.0616505564
	    H     0.0000000000  -0.7454924775   0.5198905112
	    H     0.0000000000   0.7454924775   0.5198905112
			--------------------------
			 OPTKING Finished Execution 
			--------------------------

    Structure for next step:
    Molecular point group: c2v
    Full point group: C2v

    Geometry (in Angstrom), charge = 0, multiplicity = 1:

    O       
    H             1    0.945489
    H             1    0.945489      2  104.086097

gradient() will perform analytic gradient computation.

*** tstart() called on markus-GA-MA770-UD3
*** at Tue Nov 15 18:06:25 2016


         ---------------------------------------------------------
                                   SCF
            by Justin Turney, Rob Parrish, and Andy Simmonett
                              RHF Reference
                        1 Threads,    250 MiB Core
         ---------------------------------------------------------

  ==> Geometry <==

    Molecular point group: c2v
    Full point group: C2v

    Geometry (in Angstrom), charge = 0, multiplicity = 1:

       Center              X                  Y                   Z               Mass       
    ------------   -----------------  -----------------  -----------------  -----------------
           O          0.000000000000     0.000000000000    -0.065083094884    15.994914619560
           H          0.000000000000    -0.745492477521     0.516457972727     1.007825032070
           H          0.000000000000     0.745492477521     0.516457972727     1.007825032070

  Running in c2v symmetry.

  Rotational constants: A =     27.84620  B =     15.04856  C =      9.76915 [cm^-1]
  Rotational constants: A = 834808.15663  B = 451144.35576  C = 292871.61413 [MHz]
  Nuclear repulsion =    9.309900151834118

  Charge       = 0
  Multiplicity = 1
  Electrons    = 10
  Nalpha       = 5
  Nbeta        = 5

  ==> Algorithm <==

  SCF Algorithm Type is DF.
  DIIS enabled.
  MOM disabled.
  Fractional occupation disabled.
  Guess Type is READ.
  Energy threshold   = 1.00e-08
  Density threshold  = 1.00e-08
  Integral threshold = 0.00e+00

  ==> Primary Basis <==

  Basis Set: CC-PVDZ
    Number of shells: 12
    Number of basis function: 24
    Number of Cartesian functions: 25
    Spherical Harmonics?: true
    Max angular momentum: 2

  ==> Pre-Iterations <==

   -------------------------------------------------------
    Irrep   Nso     Nmo     Nalpha   Nbeta   Ndocc  Nsocc
   -------------------------------------------------------
     A1        11      11       0       0       0       0
     A2         2       2       0       0       0       0
     B1         4       4       0       0       0       0
     B2         7       7       0       0       0       0
   -------------------------------------------------------
    Total      24      24       5       5       5       0
   -------------------------------------------------------

  ==> Integral Setup <==

  ==> DFJK: Density-Fitted J/K Matrices <==

    J tasked:                  Yes
    K tasked:                  Yes
    wK tasked:                  No
    OpenMP threads:              1
    Integrals threads:           1
    Memory (MB):               178
    Algorithm:                Core
    Integral Cache:           NONE
    Schwarz Cutoff:          1E-12
    Fitting Condition:       1E-12

   => Auxiliary Basis Set <=

  Basis Set: 
    Number of shells: 42
    Number of basis function: 116
    Number of Cartesian functions: 131
    Spherical Harmonics?: true
    Max angular momentum: 3

  Minimum eigenvalue in the overlap matrix is 3.3300758747E-02.
  Using Symmetric Orthogonalization.
  SCF Guess: Reading in previously saved MOs, projecting if necessary.

  Using orbitals from previous SCF, no projection.
  Recomputing DOCC and SOCC from number of alpha and beta electrons from previous calculation.
             A1    A2    B1    B2 
    DOCC [     3,    0,    1,    1 ]

  ==> Iterations <==

                           Total Energy        Delta E     RMS |[F,P]|

   @DF-RHF iter   0:   -76.04830539148423   -7.60483e+01   3.87082e-03 
   @DF-RHF iter   1:   -76.02698979671267    2.13156e-02   5.97564e-04 
   @DF-RHF iter   2:   -76.02701635202334   -2.65553e-05   3.06093e-04 DIIS
   @DF-RHF iter   3:   -76.02702228518267   -5.93316e-06   4.26182e-05 DIIS
   @DF-RHF iter   4:   -76.02702262856921   -3.43387e-07   1.31663e-05 DIIS
   @DF-RHF iter   5:   -76.02702266375394   -3.51847e-08   2.75997e-06 DIIS
   @DF-RHF iter   6:   -76.02702266595990   -2.20597e-09   4.90725e-07 DIIS
   @DF-RHF iter   7:   -76.02702266601744   -5.75398e-11   6.87868e-08 DIIS
   @DF-RHF iter   8:   -76.02702266601848   -1.03739e-12   1.01762e-08 DIIS
   @DF-RHF iter   9:   -76.02702266601854   -5.68434e-14   8.33461e-10 DIIS

  ==> Post-Iterations <==

    Orbital Energies (a.u.)
    -----------------------

    Doubly Occupied:                                                      

       1A1   -20.548577     2A1    -1.343128     1B2    -0.704833  
       3A1    -0.569635     1B1    -0.494167  

    Virtual:                                                              

       4A1     0.187430     2B2     0.257995     3B2     0.796450  
       5A1     0.867633     6A1     1.163162     2B1     1.200331  
       4B2     1.253190     7A1     1.439312     1A2     1.481259  
       3B1     1.675232     8A1     1.864191     5B2     1.951304  
       6B2     2.479906     9A1     2.521591     4B1     3.299140  
       2A2     3.349433    10A1     3.528742    11A1     3.876036  
       7B2     4.163835  

    Final Occupation by Irrep:
             A1    A2    B1    B2 
    DOCC [     3,    0,    1,    1 ]

  Energy converged.

  @DF-RHF Final Energy:   -76.02702266601854

   => Energetics <=

    Nuclear Repulsion Energy =              9.3099001518341176
    One-Electron Energy =                -123.3531658796308506
    Two-Electron Energy =                  38.0162430617781766
    DFT Exchange-Correlation Energy =       0.0000000000000000
    Empirical Dispersion Energy =           0.0000000000000000
    PCM Polarization Energy =               0.0000000000000000
    EFP Energy =                            0.0000000000000000
    Total Energy =                        -76.0270226660185529


  Saving occupied orbitals to File 180.

*** tstop() called on markus-GA-MA770-UD3 at Tue Nov 15 18:06:25 2016
Module time:
	user time   =       0.22 seconds =       0.00 minutes
	system time =       0.01 seconds =       0.00 minutes
	total time  =          0 seconds =       0.00 minutes
Total time:
	user time   =       0.92 seconds =       0.02 minutes
	system time =       0.03 seconds =       0.00 minutes
	total time  =          2 seconds =       0.03 minutes


Properties will be evaluated at   0.000000,   0.000000,   0.000000 Bohr

Properties computed using the SCF density matrix

  Nuclear Dipole Moment: (a.u.)
     X:     0.0000      Y:     0.0000      Z:     0.9680

  Electronic Dipole Moment: (a.u.)
     X:     0.0000      Y:     0.0000      Z:    -0.1608

  Dipole Moment: (a.u.)
     X:     0.0000      Y:     0.0000      Z:     0.8072     Total:     0.8072

  Dipole Moment: (Debye)
     X:     0.0000      Y:     0.0000      Z:     2.0517     Total:     2.0517


*** tstart() called on markus-GA-MA770-UD3
*** at Tue Nov 15 18:06:25 2016


         ------------------------------------------------------------
                                   SCF GRAD                          
                          Rob Parrish, Justin Turney,                
                       Andy Simmonett, and Alex Sokolov              
         ------------------------------------------------------------

  ==> Geometry <==

    Molecular point group: c2v
    Full point group: C2v

    Geometry (in Angstrom), charge = 0, multiplicity = 1:

       Center              X                  Y                   Z               Mass       
    ------------   -----------------  -----------------  -----------------  -----------------
           O          0.000000000000     0.000000000000    -0.065083094884    15.994914619560
           H          0.000000000000    -0.745492477521     0.516457972727     1.007825032070
           H          0.000000000000     0.745492477521     0.516457972727     1.007825032070

  Nuclear repulsion =    9.309900151834118

  ==> Basis Set <==

  Basis Set: CC-PVDZ
    Number of shells: 12
    Number of basis function: 24
    Number of Cartesian functions: 25
    Spherical Harmonics?: true
    Max angular momentum: 2

  ==> DFJKGrad: Density-Fitted SCF Gradients <==

    Gradient:                    1
    J tasked:                  Yes
    K tasked:                  Yes
    wK tasked:                  No
    OpenMP threads:              1
    Integrals threads:           1
    Memory (MB):               178
    Schwarz Cutoff:          0E+00
    Fitting Condition:       1E-12

   => Auxiliary Basis Set <=

  Basis Set: 
    Number of shells: 42
    Number of basis function: 116
    Number of Cartesian functions: 131
    Spherical Harmonics?: true
    Max angular momentum: 3


  -Total Gradient:
     Atom            X                  Y                   Z
    ------   -----------------  -----------------  -----------------
       1       -0.000000000000     0.000000000000    -0.000087997285
       2       -0.000000000000     0.001570407056     0.000043998643
       3        0.000000000000    -0.001570407056     0.000043998643


*** tstop() called on markus-GA-MA770-UD3 at Tue Nov 15 18:06:25 2016
Module time:
	user time   =       0.24 seconds =       0.00 minutes
	system time =       0.00 seconds =       0.00 minutes
	total time  =          0 seconds =       0.00 minutes
Total time:
	user time   =       1.16 seconds =       0.02 minutes
	system time =       0.04 seconds =       0.00 minutes
	total time  =          2 seconds =       0.03 minutes

			-----------------------------------------
			 OPTKING 2.0: for geometry optimizations 
			  - R.A. King,  Bethel University        
			-----------------------------------------

	Previous internal coordinate definitions found.
	---Fragment 1 Geometry and Gradient---
	 O           0.0000000000        0.0000000000       -0.1229892252
	 H           0.0000000000       -1.4087766166        0.9759641276
	 H           0.0000000000        1.4087766166        0.9759641276
	            -0.0000000000        0.0000000000       -0.0000879973
	            -0.0000000000        0.0015704071        0.0000439986
	             0.0000000000       -0.0015704071        0.0000439986

	---Fragment 1 Intrafragment Coordinates---
	 - Coordinate -           - BOHR/RAD -       - ANG/DEG -
	 R(1,2)           =         1.786715	       0.945489
	 R(1,3)           =         1.786715	       0.945489
	 B(2,1,3)         =         1.816645	     104.086097

	Current energy   :       -76.0270226660

	Energy change for the previous step:
		Projected    :        -0.0003936566
		Actual       :        -0.0003899311
	Energy ratio indicates good step: Trust radius increased to 1.000e+00.


	Performing BFGS update.
	Previous computed or guess Hessian on step 1.
	Steps to be used in Hessian update: 1
	Taking RFO optimization step.
	Going to follow RFO solution 1.
	Using RFO vector 1.
	Norm of target step-size    0.01030
	Projected energy change by RFO approximation:        -0.0000302583

	Back-transformation to cartesian coordinates...
	Successfully converged to displaced geometry.

	--- Internal Coordinate Step in ANG or DEG, aJ/ANG or AJ/DEG ---
	 ---------------------------------------------------------------------------
	   Coordinate                Previous        Force       Change         New 
	   ----------                --------       ------       ------       ------
	    1 R(1,2)          =      0.945489     0.009978     0.000798     0.946287
	    2 R(1,3)          =      0.945489     0.009978     0.000798     0.946287
	    3 B(2,1,3)        =    104.086097     0.000136     0.577620   104.663717
	 ---------------------------------------------------------------------------
	Successfully symmetrized geometry.

  ==> Convergence Check <==

  Measures of convergence in internal coordinates in au.
  Criteria marked as inactive (o), active & met (*), and active & unmet ( ).
  ---------------------------------------------------------------------------------------------
   Step     Total Energy     Delta E     MAX Force     RMS Force      MAX Disp      RMS Disp   
  ---------------------------------------------------------------------------------------------
    Convergence Criteria    1.00e-06 *    3.00e-04 *             o    1.20e-03 *             o
  ---------------------------------------------------------------------------------------------
      2     -76.02702267   -3.90e-04      1.79e-03      1.43e-03 o    1.01e-02      5.95e-03 o  ~
  ---------------------------------------------------------------------------------------------

	Writing optimization data to binary file.
	Structure for next step:
	Cartesian Geometry (in Angstrom)
	    O     0.0000000000   0.0000000000  -0.0628980677
	    H     0.0000000000  -0.7490459962   0.5153654592
	    H     0.0000000000   0.7490459962   0.5153654592
			--------------------------
			 OPTKING Finished Execution 
			--------------------------

    Structure for next step:
    Molecular point group: c2v
    Full point group: C2v

    Geometry (in Angstrom), charge = 0, multiplicity = 1:

    O       
    H             1    0.946287
    H             1    0.946287      2  104.663717

gradient() will perform analytic gradient computation.

*** tstart() called on markus-GA-MA770-UD3
*** at Tue Nov 15 18:06:25 2016


         ---------------------------------------------------------
                                   SCF
            by Justin Turney, Rob Parrish, and Andy Simmonett
                              RHF Reference
                        1 Threads,    250 MiB Core
         ---------------------------------------------------------

  ==> Geometry <==

    Molecular point group: c2v
    Full point group: C2v

    Geometry (in Angstrom), charge = 0, multiplicity = 1:

       Center              X                  Y                   Z               Mass       
    ------------   -----------------  -----------------  -----------------  -----------------
           O          0.000000000000     0.000000000000    -0.064716289330    15.994914619560
           H          0.000000000000    -0.749045996196     0.513547237563     1.007825032070
           H          0.000000000000     0.749045996196     0.513547237563     1.007825032070

  Running in c2v symmetry.

  Rotational constants: A =     28.16276  B =     14.90611  C =      9.74711 [cm^-1]
  Rotational constants: A = 844298.19575  B = 446873.99804  C = 292211.14898 [MHz]
  Nuclear repulsion =    9.300665064622281

  Charge       = 0
  Multiplicity = 1
  Electrons    = 10
  Nalpha       = 5
  Nbeta        = 5

  ==> Algorithm <==

  SCF Algorithm Type is DF.
  DIIS enabled.
  MOM disabled.
  Fractional occupation disabled.
  Guess Type is READ.
  Energy threshold   = 1.00e-08
  Density threshold  = 1.00e-08
  Integral threshold = 0.00e+00

  ==> Primary Basis <==

  Basis Set: CC-PVDZ
    Number of shells: 12
    Number of basis function: 24
    Number of Cartesian functions: 25
    Spherical Harmonics?: true
    Max angular momentum: 2

  ==> Pre-Iterations <==

   -------------------------------------------------------
    Irrep   Nso     Nmo     Nalpha   Nbeta   Ndocc  Nsocc
   -------------------------------------------------------
     A1        11      11       0       0       0       0
     A2         2       2       0       0       0       0
     B1         4       4       0       0       0       0
     B2         7       7       0       0       0       0
   -------------------------------------------------------
    Total      24      24       5       5       5       0
   -------------------------------------------------------

  ==> Integral Setup <==

  ==> DFJK: Density-Fitted J/K Matrices <==

    J tasked:                  Yes
    K tasked:                  Yes
    wK tasked:                  No
    OpenMP threads:              1
    Integrals threads:           1
    Memory (MB):               178
    Algorithm:                Core
    Integral Cache:           NONE
    Schwarz Cutoff:          1E-12
    Fitting Condition:       1E-12

   => Auxiliary Basis Set <=

  Basis Set: 
    Number of shells: 42
    Number of basis function: 116
    Number of Cartesian functions: 131
    Spherical Harmonics?: true
    Max angular momentum: 3

  Minimum eigenvalue in the overlap matrix is 3.3431282539E-02.
  Using Symmetric Orthogonalization.
  SCF Guess: Reading in previously saved MOs, projecting if necessary.

  Using orbitals from previous SCF, no projection.
  Recomputing DOCC and SOCC from number of alpha and beta electrons from previous calculation.
             A1    A2    B1    B2 
    DOCC [     3,    0,    1,    1 ]

  ==> Iterations <==

                           Total Energy        Delta E     RMS |[F,P]|

   @DF-RHF iter   0:   -76.02604012814811   -7.60260e+01   3.14831e-04 
   @DF-RHF iter   1:   -76.02703225719480   -9.92129e-04   6.89501e-05 
   @DF-RHF iter   2:   -76.02703266108053   -4.03886e-07   2.54439e-05 DIIS
   @DF-RHF iter   3:   -76.02703271700305   -5.59225e-08   9.31237e-06 DIIS
   @DF-RHF iter   4:   -76.02703272814288   -1.11398e-08   2.07995e-06 DIIS
   @DF-RHF iter   5:   -76.02703272930266   -1.15978e-09   5.04744e-07 DIIS
   @DF-RHF iter   6:   -76.02703272937357   -7.09122e-11   4.03820e-08 DIIS
   @DF-RHF iter   7:   -76.02703272937396   -3.83693e-13   3.05458e-09 DIIS

  ==> Post-Iterations <==

    Orbital Energies (a.u.)
    -----------------------

    Doubly Occupied:                                                      

       1A1   -20.548408     2A1    -1.342234     1B2    -0.705525  
       3A1    -0.568294     1B1    -0.493901  

    Virtual:                                                              

       4A1     0.187428     2B2     0.257800     3B2     0.797880  
       5A1     0.864177     6A1     1.162737     2B1     1.200484  
       4B2     1.252644     7A1     1.444706     1A2     1.479104  
       3B1     1.678366     8A1     1.865637     5B2     1.946914  
       6B2     2.479681     9A1     2.518360     4B1     3.295277  
       2A2     3.350895    10A1     3.525058    11A1     3.879921  
       7B2     4.159468  

    Final Occupation by Irrep:
             A1    A2    B1    B2 
    DOCC [     3,    0,    1,    1 ]

  Energy converged.

  @DF-RHF Final Energy:   -76.02703272937396

   => Energetics <=

    Nuclear Repulsion Energy =              9.3006650646222813
    One-Electron Energy =                -123.3386693223096984
    Two-Electron Energy =                  38.0109715283134264
    DFT Exchange-Correlation Energy =       0.0000000000000000
    Empirical Dispersion Energy =           0.0000000000000000
    PCM Polarization Energy =               0.0000000000000000
    EFP Energy =                            0.0000000000000000
    Total Energy =                        -76.0270327293739854


  Saving occupied orbitals to File 180.

*** tstop() called on markus-GA-MA770-UD3 at Tue Nov 15 18:06:25 2016
Module time:
	user time   =       0.18 seconds =       0.00 minutes
	system time =       0.01 seconds =       0.00 minutes
	total time  =          0 seconds =       0.00 minutes
Total time:
	user time   =       1.41 seconds =       0.02 minutes
	system time =       0.05 seconds =       0.00 minutes
	total time  =          2 seconds =       0.03 minutes


Properties will be evaluated at   0.000000,   0.000000,   0.000000 Bohr

Properties computed using the SCF density matrix

  Nuclear Dipole Moment: (a.u.)
     X:     0.0000      Y:     0.0000      Z:     0.9626

  Electronic Dipole Moment: (a.u.)
     X:     0.0000      Y:     0.0000      Z:    -0.1585

  Dipole Moment: (a.u.)
     X:     0.0000      Y:     0.0000      Z:     0.8041     Total:     0.8041

  Dipole Moment: (Debye)
     X:     0.0000      Y:     0.0000      Z:     2.0438     Total:     2.0438


*** tstart() called on markus-GA-MA770-UD3
*** at Tue Nov 15 18:06:25 2016


         ------------------------------------------------------------
                                   SCF GRAD                          
                          Rob Parrish, Justin Turney,                
                       Andy Simmonett, and Alex Sokolov              
         ------------------------------------------------------------

  ==> Geometry <==

    Molecular point group: c2v
    Full point group: C2v

    Geometry (in Angstrom), charge = 0, multiplicity = 1:

       Center              X                  Y                   Z               Mass       
    ------------   -----------------  -----------------  -----------------  -----------------
           O          0.000000000000     0.000000000000    -0.064716289330    15.994914619560
           H          0.000000000000    -0.749045996196     0.513547237563     1.007825032070
           H          0.000000000000     0.749045996196     0.513547237563     1.007825032070

  Nuclear repulsion =    9.300665064622281

  ==> Basis Set <==

  Basis Set: CC-PVDZ
    Number of shells: 12
    Number of basis function: 24
    Number of Cartesian functions: 25
    Spherical Harmonics?: true
    Max angular momentum: 2

  ==> DFJKGrad: Density-Fitted SCF Gradients <==

    Gradient:                    1
    J tasked:                  Yes
    K tasked:                  Yes
    wK tasked:                  No
    OpenMP threads:              1
    Integrals threads:           1
    Memory (MB):               178
    Schwarz Cutoff:          0E+00
    Fitting Condition:       1E-12

   => Auxiliary Basis Set <=

  Basis Set: 
    Number of shells: 42
    Number of basis function: 116
    Number of Cartesian functions: 131
    Spherical Harmonics?: true
    Max angular momentum: 3


  -Total Gradient:
     Atom            X                  Y                   Z
    ------   -----------------  -----------------  -----------------
       1        0.000000000000     0.000000000000     0.000085866698
       2        0.000000000000    -0.000072678220    -0.000042933349
       3       -0.000000000000     0.000072678220    -0.000042933349


*** tstop() called on markus-GA-MA770-UD3 at Tue Nov 15 18:06:26 2016
Module time:
	user time   =       0.22 seconds =       0.00 minutes
	system time =       0.01 seconds =       0.00 minutes
	total time  =          1 seconds =       0.02 minutes
Total time:
	user time   =       1.64 seconds =       0.03 minutes
	system time =       0.06 seconds =       0.00 minutes
	total time  =          3 seconds =       0.05 minutes

			-----------------------------------------
			 OPTKING 2.0: for geometry optimizations 
			  - R.A. King,  Bethel University        
			-----------------------------------------

	Previous internal coordinate definitions found.
	---Fragment 1 Geometry and Gradient---
	 O           0.0000000000        0.0000000000       -0.1222960632
	 H           0.0000000000       -1.4154917937        0.9704636353
	 H           0.0000000000        1.4154917937        0.9704636353
	             0.0000000000        0.0000000000        0.0000858667
	             0.0000000000       -0.0000726782       -0.0000429333
	            -0.0000000000        0.0000726782       -0.0000429333

	---Fragment 1 Intrafragment Coordinates---
	 - Coordinate -           - BOHR/RAD -       - ANG/DEG -
	 R(1,2)           =         1.788223	       0.946287
	 R(1,3)           =         1.788223	       0.946287
	 B(2,1,3)         =         1.826726	     104.663717

	Current energy   :       -76.0270327294

	Energy change for the previous step:
		Projected    :        -0.0000302583
		Actual       :        -0.0000100634

	Performing BFGS update.
	Previous computed or guess Hessian on step 1.
	Steps to be used in Hessian update: 2 1
	Taking RFO optimization step.
	Going to follow RFO solution 1.
	Using RFO vector 1.
	Norm of target step-size    0.00077
	Projected energy change by RFO approximation:        -0.0000001419

	Back-transformation to cartesian coordinates...
	Successfully converged to displaced geometry.

	--- Internal Coordinate Step in ANG or DEG, aJ/ANG or AJ/DEG ---
	 ---------------------------------------------------------------------------
	   Coordinate                Previous        Force       Change         New 
	   ----------                --------       ------       ------       ------
	    1 R(1,2)          =      0.946287    -0.000258    -0.000007     0.946279
	    2 R(1,3)          =      0.946287    -0.000258    -0.000007     0.946279
	    3 B(2,1,3)        =    104.663717    -0.000011    -0.044383   104.619334
	 ---------------------------------------------------------------------------
	Successfully symmetrized geometry.

  ==> Convergence Check <==

  Measures of convergence in internal coordinates in au.
  Criteria marked as inactive (o), active & met (*), and active & unmet ( ).
  ---------------------------------------------------------------------------------------------
   Step     Total Energy     Delta E     MAX Force     RMS Force      MAX Disp      RMS Disp   
  ---------------------------------------------------------------------------------------------
    Convergence Criteria    1.00e-06 *    3.00e-04 *             o    1.20e-03 *             o
  ---------------------------------------------------------------------------------------------
      3     -76.02703273   -1.01e-05      1.40e-04 *    8.49e-05 o    7.75e-04 *    4.47e-04 o  ~
  ---------------------------------------------------------------------------------------------


  **** Optimization is complete! (in 3 steps) ****

  ==> Optimization Summary <==

  Measures of convergence in internal coordinates in au.
  --------------------------------------------------------------------------------------------------------------- ~
   Step         Total Energy             Delta E       MAX Force       RMS Force        MAX Disp        RMS Disp  ~
  --------------------------------------------------------------------------------------------------------------- ~
      1     -76.026632734908    -76.026632734908      0.01523518      0.01245755      0.02742222      0.02277529  ~
      2     -76.027022666019     -0.000389931110      0.00178779      0.00142945      0.01008137      0.00594928  ~
      3     -76.027032729374     -0.000010063355      0.00014019      0.00008488      0.00077463      0.00044738  ~
  --------------------------------------------------------------------------------------------------------------- ~

	Writing optimization data to binary file.
	Final energy is    -76.0270327293740
	Final (previous) structure:
	Cartesian Geometry (in Angstrom)
	    O     0.0000000000   0.0000000000  -0.0647162893
	    H     0.0000000000  -0.7490459962   0.5135472376
	    H     0.0000000000   0.7490459962   0.5135472376
	Saving final (previous) structure.
			--------------------------
			 OPTKING Finished Execution 
			--------------------------

    Final optimized geometry and variables:
    Molecular point group: c2v
    Full point group: C2v

    Geometry (in Angstrom), charge = 0, multiplicity = 1:

    O       
    H             1    0.946287
    H             1    0.946287      2  104.663717

	Cleaning optimization helper files.
hessian() will perform frequency computation by finite difference of analytic gradients.

-------------------------------------------------------------

  Using finite-differences of gradients to determine vibrational frequencies and 
  normal modes.  Resulting frequencies are only valid at stationary points.
	Generating geometries for use with 3-point formula.
	Displacement size will be 5.00e-03.
	Number of atoms is 3.
	Number of irreps is 4.
	Number of SALCS is 3.
	Index of salcs per irrep:
	 1 :  0  1 
	 2 : 
	 3 : 
	 4 :  2 
	Number of SALC's per irrep:
		 Irrep 1: 2
		 Irrep 2: 0
		 Irrep 3: 0
		 Irrep 4: 1
	Number of geometries (including reference) is 6.
	Number of displacements per irrep:
	  Irrep 1: 4
	  Irrep 2: 0
	  Irrep 3: 0
	  Irrep 4: 1

-------------------------------------------------------------

  //>>>>>>>>>>>>>>>>>>>>>>>>>>>>>>>>>>>//
  //    Loading displacement 1 of 6    //
  //<<<<<<<<<<<<<<<<<<<<<<<<<<<<<<<<<<<//
gradient() will perform analytic gradient computation.
    There are an even number of electrons - assuming singlet.
    Specify the multiplicity in the molecule input block.


*** tstart() called on markus-GA-MA770-UD3
*** at Tue Nov 15 18:06:26 2016


         ---------------------------------------------------------
                                   SCF
            by Justin Turney, Rob Parrish, and Andy Simmonett
                              RHF Reference
                        1 Threads,    250 MiB Core
         ---------------------------------------------------------

  ==> Geometry <==

    Molecular point group: c2v
    Full point group: C2v

    Geometry (in Angstrom), charge = 0, multiplicity = 1:

       Center              X                  Y                   Z               Mass       
    ------------   -----------------  -----------------  -----------------  -----------------
           O          0.000000000000     0.000000000000    -0.064937611070    15.994914619560
           H          0.000000000000    -0.749045996196     0.515303505875     1.007825032070
           H          0.000000000000     0.749045996196     0.515303505875     1.007825032070

  Running in c2v symmetry.

  Rotational constants: A =     27.97111  B =     14.90611  C =      9.72406 [cm^-1]
  Rotational constants: A = 838552.89315  B = 446873.99804  C = 291519.87289 [MHz]
  Nuclear repulsion =    9.289240898677415

  Charge       = 0
  Multiplicity = 1
  Electrons    = 10
  Nalpha       = 5
  Nbeta        = 5

  ==> Algorithm <==

  SCF Algorithm Type is DF.
  DIIS enabled.
  MOM disabled.
  Fractional occupation disabled.
  Guess Type is SAD.
  Energy threshold   = 1.00e-08
  Density threshold  = 1.00e-08
  Integral threshold = 0.00e+00

  ==> Primary Basis <==

  Basis Set: CC-PVDZ
    Number of shells: 12
    Number of basis function: 24
    Number of Cartesian functions: 25
    Spherical Harmonics?: true
    Max angular momentum: 2

  ==> Pre-Iterations <==

   -------------------------------------------------------
    Irrep   Nso     Nmo     Nalpha   Nbeta   Ndocc  Nsocc
   -------------------------------------------------------
     A1        11      11       0       0       0       0
     A2         2       2       0       0       0       0
     B1         4       4       0       0       0       0
     B2         7       7       0       0       0       0
   -------------------------------------------------------
    Total      24      24       5       5       5       0
   -------------------------------------------------------

  ==> Integral Setup <==

  ==> DFJK: Density-Fitted J/K Matrices <==

    J tasked:                  Yes
    K tasked:                  Yes
    wK tasked:                  No
    OpenMP threads:              1
    Integrals threads:           1
    Memory (MB):               178
    Algorithm:                Core
    Integral Cache:           NONE
    Schwarz Cutoff:          1E-12
    Fitting Condition:       1E-12

   => Auxiliary Basis Set <=

  Basis Set: 
    Number of shells: 42
    Number of basis function: 116
    Number of Cartesian functions: 131
    Spherical Harmonics?: true
    Max angular momentum: 3

  Minimum eigenvalue in the overlap matrix is 3.3490359613E-02.
  Using Symmetric Orthogonalization.
  SCF Guess: Superposition of Atomic Densities via on-the-fly atomic UHF.

  ==> Iterations <==

                           Total Energy        Delta E     RMS |[F,P]|

   @DF-RHF iter   0:   -76.04319593318139   -7.60432e+01   1.25504e-01 
   @DF-RHF iter   1:   -75.99140240866186    5.17935e-02   2.06625e-02 
   @DF-RHF iter   2:   -76.01955421287401   -2.81518e-02   1.01497e-02 DIIS
   @DF-RHF iter   3:   -76.02649373249227   -6.93952e-03   1.71829e-03 DIIS
   @DF-RHF iter   4:   -76.02697765601812   -4.83924e-04   4.75070e-04 DIIS
   @DF-RHF iter   5:   -76.02702648677101   -4.88308e-05   9.78353e-05 DIIS
   @DF-RHF iter   6:   -76.02702922844927   -2.74168e-06   1.49515e-05 DIIS
   @DF-RHF iter   7:   -76.02702929296086   -6.45116e-08   1.82747e-06 DIIS
   @DF-RHF iter   8:   -76.02702929366880   -7.07942e-10   3.25644e-07 DIIS
   @DF-RHF iter   9:   -76.02702929368945   -2.06484e-11   3.03261e-08 DIIS
   @DF-RHF iter  10:   -76.02702929368968   -2.27374e-13   4.23781e-09 DIIS

  ==> Post-Iterations <==

    Orbital Energies (a.u.)
    -----------------------

    Doubly Occupied:                                                      

       1A1   -20.548726     2A1    -1.341756     1B2    -0.704498  
       3A1    -0.568460     1B1    -0.493876  

    Virtual:                                                              

       4A1     0.187188     2B2     0.257657     3B2     0.796321  
       5A1     0.863882     6A1     1.162980     2B1     1.200448  
       4B2     1.252898     7A1     1.443153     1A2     1.479406  
       3B1     1.677027     8A1     1.865452     5B2     1.946683  
       6B2     2.476210     9A1     2.515617     4B1     3.295225  
       2A2     3.348947    10A1     3.524353    11A1     3.876970  
       7B2     4.159216  

    Final Occupation by Irrep:
             A1    A2    B1    B2 
    DOCC [     3,    0,    1,    1 ]

  Energy converged.

  @DF-RHF Final Energy:   -76.02702929368968

   => Energetics <=

    Nuclear Repulsion Energy =              9.2892408986774146
    One-Electron Energy =                -123.3179074328581635
    Two-Electron Energy =                  38.0016372404910641
    DFT Exchange-Correlation Energy =       0.0000000000000000
    Empirical Dispersion Energy =           0.0000000000000000
    PCM Polarization Energy =               0.0000000000000000
    EFP Energy =                            0.0000000000000000
    Total Energy =                        -76.0270292936896794


  Saving occupied orbitals to File 180.

*** tstop() called on markus-GA-MA770-UD3 at Tue Nov 15 18:06:26 2016
Module time:
	user time   =       0.37 seconds =       0.01 minutes
	system time =       0.01 seconds =       0.00 minutes
	total time  =          0 seconds =       0.00 minutes
Total time:
	user time   =       2.09 seconds =       0.03 minutes
	system time =       0.07 seconds =       0.00 minutes
	total time  =          3 seconds =       0.05 minutes


Properties will be evaluated at   0.000000,   0.000000,   0.000000 Bohr

Properties computed using the SCF density matrix

  Nuclear Dipole Moment: (a.u.)
     X:     0.0000      Y:     0.0000      Z:     0.9659

  Electronic Dipole Moment: (a.u.)
     X:     0.0000      Y:     0.0000      Z:    -0.1602

  Dipole Moment: (a.u.)
     X:     0.0000      Y:     0.0000      Z:     0.8057     Total:     0.8057

  Dipole Moment: (Debye)
     X:     0.0000      Y:     0.0000      Z:     2.0478     Total:     2.0478


*** tstart() called on markus-GA-MA770-UD3
*** at Tue Nov 15 18:06:26 2016


         ------------------------------------------------------------
                                   SCF GRAD                          
                          Rob Parrish, Justin Turney,                
                       Andy Simmonett, and Alex Sokolov              
         ------------------------------------------------------------

  ==> Geometry <==

    Molecular point group: c2v
    Full point group: C2v

    Geometry (in Angstrom), charge = 0, multiplicity = 1:

       Center              X                  Y                   Z               Mass       
    ------------   -----------------  -----------------  -----------------  -----------------
           O          0.000000000000     0.000000000000    -0.064937611070    15.994914619560
           H          0.000000000000    -0.749045996196     0.515303505875     1.007825032070
           H          0.000000000000     0.749045996196     0.515303505875     1.007825032070

  Nuclear repulsion =    9.289240898677415

  ==> Basis Set <==

  Basis Set: CC-PVDZ
    Number of shells: 12
    Number of basis function: 24
    Number of Cartesian functions: 25
    Spherical Harmonics?: true
    Max angular momentum: 2

  ==> DFJKGrad: Density-Fitted SCF Gradients <==

    Gradient:                    1
    J tasked:                  Yes
    K tasked:                  Yes
    wK tasked:                  No
    OpenMP threads:              1
    Integrals threads:           1
    Memory (MB):               178
    Schwarz Cutoff:          0E+00
    Fitting Condition:       1E-12

   => Auxiliary Basis Set <=

  Basis Set: 
    Number of shells: 42
    Number of basis function: 116
    Number of Cartesian functions: 131
    Spherical Harmonics?: true
    Max angular momentum: 3


  -Total Gradient:
     Atom            X                  Y                   Z
    ------   -----------------  -----------------  -----------------
       1       -0.000000000000     0.000000000000    -0.001923599675
       2        0.000000000000    -0.000949071267     0.000961799838
       3       -0.000000000000     0.000949071267     0.000961799838


*** tstop() called on markus-GA-MA770-UD3 at Tue Nov 15 18:06:27 2016
Module time:
	user time   =       0.22 seconds =       0.00 minutes
	system time =       0.01 seconds =       0.00 minutes
	total time  =          1 seconds =       0.02 minutes
Total time:
	user time   =       2.32 seconds =       0.04 minutes
	system time =       0.08 seconds =       0.00 minutes
	total time  =          4 seconds =       0.07 minutes

  //>>>>>>>>>>>>>>>>>>>>>>>>>>>>>>>>>>>//
  //    Loading displacement 2 of 6    //
  //<<<<<<<<<<<<<<<<<<<<<<<<<<<<<<<<<<<//
gradient() will perform analytic gradient computation.

*** tstart() called on markus-GA-MA770-UD3
*** at Tue Nov 15 18:06:27 2016


         ---------------------------------------------------------
                                   SCF
            by Justin Turney, Rob Parrish, and Andy Simmonett
                              RHF Reference
                        1 Threads,    250 MiB Core
         ---------------------------------------------------------

  ==> Geometry <==

    Molecular point group: c2v
    Full point group: C2v

    Geometry (in Angstrom), charge = 0, multiplicity = 1:

       Center              X                  Y                   Z               Mass       
    ------------   -----------------  -----------------  -----------------  -----------------
           O          0.000000000000     0.000000000000    -0.064494967590    15.994914619560
           H          0.000000000000    -0.749045996196     0.511790969252     1.007825032070
           H          0.000000000000     0.749045996196     0.511790969252     1.007825032070

  Running in c2v symmetry.

  Rotational constants: A =     28.35638  B =     14.90611  C =      9.77020 [cm^-1]
  Rotational constants: A = 850102.74674  B = 446873.99804  C = 292903.33440 [MHz]
  Nuclear repulsion =    9.312093930728226

  Charge       = 0
  Multiplicity = 1
  Electrons    = 10
  Nalpha       = 5
  Nbeta        = 5

  ==> Algorithm <==

  SCF Algorithm Type is DF.
  DIIS enabled.
  MOM disabled.
  Fractional occupation disabled.
  Guess Type is SAD.
  Energy threshold   = 1.00e-08
  Density threshold  = 1.00e-08
  Integral threshold = 0.00e+00

  ==> Primary Basis <==

  Basis Set: CC-PVDZ
    Number of shells: 12
    Number of basis function: 24
    Number of Cartesian functions: 25
    Spherical Harmonics?: true
    Max angular momentum: 2

  ==> Pre-Iterations <==

   -------------------------------------------------------
    Irrep   Nso     Nmo     Nalpha   Nbeta   Ndocc  Nsocc
   -------------------------------------------------------
     A1        11      11       0       0       0       0
     A2         2       2       0       0       0       0
     B1         4       4       0       0       0       0
     B2         7       7       0       0       0       0
   -------------------------------------------------------
    Total      24      24       5       5       5       0
   -------------------------------------------------------

  ==> Integral Setup <==

  ==> DFJK: Density-Fitted J/K Matrices <==

    J tasked:                  Yes
    K tasked:                  Yes
    wK tasked:                  No
    OpenMP threads:              1
    Integrals threads:           1
    Memory (MB):               178
    Algorithm:                Core
    Integral Cache:           NONE
    Schwarz Cutoff:          1E-12
    Fitting Condition:       1E-12

   => Auxiliary Basis Set <=

  Basis Set: 
    Number of shells: 42
    Number of basis function: 116
    Number of Cartesian functions: 131
    Spherical Harmonics?: true
    Max angular momentum: 3

  Minimum eigenvalue in the overlap matrix is 3.3372487146E-02.
  Using Symmetric Orthogonalization.
  SCF Guess: Superposition of Atomic Densities via on-the-fly atomic UHF.

  ==> Iterations <==

                           Total Energy        Delta E     RMS |[F,P]|

   @DF-RHF iter   0:   -76.04660909784882   -7.60466e+01   1.26044e-01 
   @DF-RHF iter   1:   -75.99159244255581    5.50167e-02   2.06423e-02 
   @DF-RHF iter   2:   -76.01961798951201   -2.80255e-02   1.01092e-02 DIIS
   @DF-RHF iter   3:   -76.02649953376192   -6.88154e-03   1.71155e-03 DIIS
   @DF-RHF iter   4:   -76.02697805562426   -4.78522e-04   4.70788e-04 DIIS
   @DF-RHF iter   5:   -76.02702588737188   -4.78317e-05   9.70762e-05 DIIS
   @DF-RHF iter   6:   -76.02702858111917   -2.69375e-06   1.47770e-05 DIIS
   @DF-RHF iter   7:   -76.02702864418428   -6.30651e-08   1.77989e-06 DIIS
   @DF-RHF iter   8:   -76.02702864485468   -6.70397e-10   3.18496e-07 DIIS
   @DF-RHF iter   9:   -76.02702864487449   -1.98099e-11   3.00894e-08 DIIS
   @DF-RHF iter  10:   -76.02702864487458   -8.52651e-14   4.18917e-09 DIIS

  ==> Post-Iterations <==

    Orbital Energies (a.u.)
    -----------------------

    Doubly Occupied:                                                      

       1A1   -20.548091     2A1    -1.342712     1B2    -0.706554  
       3A1    -0.568127     1B1    -0.493925  

    Virtual:                                                              

       4A1     0.187668     2B2     0.257942     3B2     0.799447  
       5A1     0.864465     6A1     1.162496     2B1     1.200517  
       4B2     1.252393     7A1     1.446256     1A2     1.478801  
       3B1     1.679712     8A1     1.865828     5B2     1.947138  
       6B2     2.483168     9A1     2.521103     4B1     3.295315  
       2A2     3.352848    10A1     3.525715    11A1     3.882919  
       7B2     4.159702  

    Final Occupation by Irrep:
             A1    A2    B1    B2 
    DOCC [     3,    0,    1,    1 ]

  Energy converged.

  @DF-RHF Final Energy:   -76.02702864487458

   => Energetics <=

    Nuclear Repulsion Energy =              9.3120939307282260
    One-Electron Energy =                -123.3594252380202079
    Two-Electron Energy =                  38.0203026624173788
    DFT Exchange-Correlation Energy =       0.0000000000000000
    Empirical Dispersion Energy =           0.0000000000000000
    PCM Polarization Energy =               0.0000000000000000
    EFP Energy =                            0.0000000000000000
    Total Energy =                        -76.0270286448746049


  Saving occupied orbitals to File 180.

*** tstop() called on markus-GA-MA770-UD3 at Tue Nov 15 18:06:27 2016
Module time:
	user time   =       0.35 seconds =       0.01 minutes
	system time =       0.00 seconds =       0.00 minutes
	total time  =          0 seconds =       0.00 minutes
Total time:
	user time   =       2.73 seconds =       0.05 minutes
	system time =       0.08 seconds =       0.00 minutes
	total time  =          4 seconds =       0.07 minutes


Properties will be evaluated at   0.000000,   0.000000,   0.000000 Bohr

Properties computed using the SCF density matrix

  Nuclear Dipole Moment: (a.u.)
     X:     0.0000      Y:     0.0000      Z:     0.9593

  Electronic Dipole Moment: (a.u.)
     X:     0.0000      Y:     0.0000      Z:    -0.1568

  Dipole Moment: (a.u.)
     X:     0.0000      Y:     0.0000      Z:     0.8025     Total:     0.8025

  Dipole Moment: (Debye)
     X:     0.0000      Y:     0.0000      Z:     2.0397     Total:     2.0397


*** tstart() called on markus-GA-MA770-UD3
*** at Tue Nov 15 18:06:27 2016


         ------------------------------------------------------------
                                   SCF GRAD                          
                          Rob Parrish, Justin Turney,                
                       Andy Simmonett, and Alex Sokolov              
         ------------------------------------------------------------

  ==> Geometry <==

    Molecular point group: c2v
    Full point group: C2v

    Geometry (in Angstrom), charge = 0, multiplicity = 1:

       Center              X                  Y                   Z               Mass       
    ------------   -----------------  -----------------  -----------------  -----------------
           O          0.000000000000     0.000000000000    -0.064494967590    15.994914619560
           H          0.000000000000    -0.749045996196     0.511790969252     1.007825032070
           H          0.000000000000     0.749045996196     0.511790969252     1.007825032070

  Nuclear repulsion =    9.312093930728226

  ==> Basis Set <==

  Basis Set: CC-PVDZ
    Number of shells: 12
    Number of basis function: 24
    Number of Cartesian functions: 25
    Spherical Harmonics?: true
    Max angular momentum: 2

  ==> DFJKGrad: Density-Fitted SCF Gradients <==

    Gradient:                    1
    J tasked:                  Yes
    K tasked:                  Yes
    wK tasked:                  No
    OpenMP threads:              1
    Integrals threads:           1
    Memory (MB):               178
    Schwarz Cutoff:          0E+00
    Fitting Condition:       1E-12

   => Auxiliary Basis Set <=

  Basis Set: 
    Number of shells: 42
    Number of basis function: 116
    Number of Cartesian functions: 131
    Spherical Harmonics?: true
    Max angular momentum: 3


  -Total Gradient:
     Atom            X                  Y                   Z
    ------   -----------------  -----------------  -----------------
       1       -0.000000000000     0.000000000000     0.002100987536
       2       -0.000000000000     0.000812971042    -0.001050493768
       3        0.000000000000    -0.000812971042    -0.001050493768


*** tstop() called on markus-GA-MA770-UD3 at Tue Nov 15 18:06:27 2016
Module time:
	user time   =       0.22 seconds =       0.00 minutes
	system time =       0.02 seconds =       0.00 minutes
	total time  =          0 seconds =       0.00 minutes
Total time:
	user time   =       2.96 seconds =       0.05 minutes
	system time =       0.10 seconds =       0.00 minutes
	total time  =          4 seconds =       0.07 minutes

  //>>>>>>>>>>>>>>>>>>>>>>>>>>>>>>>>>>>//
  //    Loading displacement 3 of 6    //
  //<<<<<<<<<<<<<<<<<<<<<<<<<<<<<<<<<<<//
gradient() will perform analytic gradient computation.

*** tstart() called on markus-GA-MA770-UD3
*** at Tue Nov 15 18:06:27 2016


         ---------------------------------------------------------
                                   SCF
            by Justin Turney, Rob Parrish, and Andy Simmonett
                              RHF Reference
                        1 Threads,    250 MiB Core
         ---------------------------------------------------------

  ==> Geometry <==

    Molecular point group: c2v
    Full point group: C2v

    Geometry (in Angstrom), charge = 0, multiplicity = 1:

       Center              X                  Y                   Z               Mass       
    ------------   -----------------  -----------------  -----------------  -----------------
           O          0.000000000000     0.000000000000    -0.064716289330    15.994914619560
           H          0.000000000000    -0.750909642820     0.513547237563     1.007825032070
           H          0.000000000000     0.750909642820     0.513547237563     1.007825032070

  Running in c2v symmetry.

  Rotational constants: A =     28.16276  B =     14.83221  C =      9.71546 [cm^-1]
  Rotational constants: A = 844298.19575  B = 444658.60032  C = 291262.24798 [MHz]
  Nuclear repulsion =    9.285855235031214

  Charge       = 0
  Multiplicity = 1
  Electrons    = 10
  Nalpha       = 5
  Nbeta        = 5

  ==> Algorithm <==

  SCF Algorithm Type is DF.
  DIIS enabled.
  MOM disabled.
  Fractional occupation disabled.
  Guess Type is SAD.
  Energy threshold   = 1.00e-08
  Density threshold  = 1.00e-08
  Integral threshold = 0.00e+00

  ==> Primary Basis <==

  Basis Set: CC-PVDZ
    Number of shells: 12
    Number of basis function: 24
    Number of Cartesian functions: 25
    Spherical Harmonics?: true
    Max angular momentum: 2

  ==> Pre-Iterations <==

   -------------------------------------------------------
    Irrep   Nso     Nmo     Nalpha   Nbeta   Ndocc  Nsocc
   -------------------------------------------------------
     A1        11      11       0       0       0       0
     A2         2       2       0       0       0       0
     B1         4       4       0       0       0       0
     B2         7       7       0       0       0       0
   -------------------------------------------------------
    Total      24      24       5       5       5       0
   -------------------------------------------------------

  ==> Integral Setup <==

  ==> DFJK: Density-Fitted J/K Matrices <==

    J tasked:                  Yes
    K tasked:                  Yes
    wK tasked:                  No
    OpenMP threads:              1
    Integrals threads:           1
    Memory (MB):               178
    Algorithm:                Core
    Integral Cache:           NONE
    Schwarz Cutoff:          1E-12
    Fitting Condition:       1E-12

   => Auxiliary Basis Set <=

  Basis Set: 
    Number of shells: 42
    Number of basis function: 116
    Number of Cartesian functions: 131
    Spherical Harmonics?: true
    Max angular momentum: 3

  Minimum eigenvalue in the overlap matrix is 3.3552800215E-02.
  Using Symmetric Orthogonalization.
  SCF Guess: Superposition of Atomic Densities via on-the-fly atomic UHF.

  ==> Iterations <==

                           Total Energy        Delta E     RMS |[F,P]|

   @DF-RHF iter   0:   -76.04144398856539   -7.60414e+01   1.25358e-01 
   @DF-RHF iter   1:   -75.99146676749299    4.99772e-02   2.06411e-02 
   @DF-RHF iter   2:   -76.01955848426675   -2.80917e-02   1.01407e-02 DIIS
   @DF-RHF iter   3:   -76.02648916151009   -6.93068e-03   1.71825e-03 DIIS
   @DF-RHF iter   4:   -76.02697468483424   -4.85523e-04   4.75374e-04 DIIS
   @DF-RHF iter   5:   -76.02702368074358   -4.89959e-05   9.79634e-05 DIIS
   @DF-RHF iter   6:   -76.02702643275293   -2.75201e-06   1.49543e-05 DIIS
   @DF-RHF iter   7:   -76.02702649738151   -6.46286e-08   1.82113e-06 DIIS
   @DF-RHF iter   8:   -76.02702649808450   -7.02983e-10   3.24752e-07 DIIS
   @DF-RHF iter   9:   -76.02702649810510   -2.06057e-11   3.03629e-08 DIIS
   @DF-RHF iter  10:   -76.02702649810522   -1.13687e-13   4.24193e-09 DIIS

  ==> Post-Iterations <==

    Orbital Energies (a.u.)
    -----------------------

    Doubly Occupied:                                                      

       1A1   -20.548596     2A1    -1.341350     1B2    -0.704986  
       3A1    -0.567736     1B1    -0.493739  

    Virtual:                                                              

       4A1     0.187215     2B2     0.257574     3B2     0.797274  
       5A1     0.862105     6A1     1.162739     2B1     1.200533  
       4B2     1.252578     7A1     1.446164     1A2     1.478248  
       3B1     1.678827     8A1     1.866240     5B2     1.944423  
       6B2     2.476541     9A1     2.514286     4B1     3.293207  
       2A2     3.349959    10A1     3.522426    11A1     3.879429  
       7B2     4.156950  

    Final Occupation by Irrep:
             A1    A2    B1    B2 
    DOCC [     3,    0,    1,    1 ]

  Energy converged.

  @DF-RHF Final Energy:   -76.02702649810522

   => Energetics <=

    Nuclear Repulsion Energy =              9.2858552350312138
    One-Electron Energy =                -123.3129475953053031
    Two-Electron Energy =                  38.0000658621688530
    DFT Exchange-Correlation Energy =       0.0000000000000000
    Empirical Dispersion Energy =           0.0000000000000000
    PCM Polarization Energy =               0.0000000000000000
    EFP Energy =                            0.0000000000000000
    Total Energy =                        -76.0270264981052293


  Saving occupied orbitals to File 180.

*** tstop() called on markus-GA-MA770-UD3 at Tue Nov 15 18:06:28 2016
Module time:
	user time   =       0.34 seconds =       0.01 minutes
	system time =       0.01 seconds =       0.00 minutes
	total time  =          1 seconds =       0.02 minutes
Total time:
	user time   =       3.37 seconds =       0.06 minutes
	system time =       0.11 seconds =       0.00 minutes
	total time  =          5 seconds =       0.08 minutes


Properties will be evaluated at   0.000000,   0.000000,   0.000000 Bohr

Properties computed using the SCF density matrix

  Nuclear Dipole Moment: (a.u.)
     X:     0.0000      Y:     0.0000      Z:     0.9626

  Electronic Dipole Moment: (a.u.)
     X:     0.0000      Y:     0.0000      Z:    -0.1587

  Dipole Moment: (a.u.)
     X:     0.0000      Y:     0.0000      Z:     0.8038     Total:     0.8038

  Dipole Moment: (Debye)
     X:     0.0000      Y:     0.0000      Z:     2.0431     Total:     2.0431


*** tstart() called on markus-GA-MA770-UD3
*** at Tue Nov 15 18:06:28 2016


         ------------------------------------------------------------
                                   SCF GRAD                          
                          Rob Parrish, Justin Turney,                
                       Andy Simmonett, and Alex Sokolov              
         ------------------------------------------------------------

  ==> Geometry <==

    Molecular point group: c2v
    Full point group: C2v

    Geometry (in Angstrom), charge = 0, multiplicity = 1:

       Center              X                  Y                   Z               Mass       
    ------------   -----------------  -----------------  -----------------  -----------------
           O          0.000000000000     0.000000000000    -0.064716289330    15.994914619560
           H          0.000000000000    -0.750909642820     0.513547237563     1.007825032070
           H          0.000000000000     0.750909642820     0.513547237563     1.007825032070

  Nuclear repulsion =    9.285855235031214

  ==> Basis Set <==

  Basis Set: CC-PVDZ
    Number of shells: 12
    Number of basis function: 24
    Number of Cartesian functions: 25
    Spherical Harmonics?: true
    Max angular momentum: 2

  ==> DFJKGrad: Density-Fitted SCF Gradients <==

    Gradient:                    1
    J tasked:                  Yes
    K tasked:                  Yes
    wK tasked:                  No
    OpenMP threads:              1
    Integrals threads:           1
    Memory (MB):               178
    Schwarz Cutoff:          0E+00
    Fitting Condition:       1E-12

   => Auxiliary Basis Set <=

  Basis Set: 
    Number of shells: 42
    Number of basis function: 116
    Number of Cartesian functions: 131
    Spherical Harmonics?: true
    Max angular momentum: 3


  -Total Gradient:
     Atom            X                  Y                   Z
    ------   -----------------  -----------------  -----------------
       1        0.000000000000     0.000000000000    -0.001562996491
       2        0.000000000000    -0.001694420675     0.000781498245
       3       -0.000000000000     0.001694420675     0.000781498245


*** tstop() called on markus-GA-MA770-UD3 at Tue Nov 15 18:06:28 2016
Module time:
	user time   =       0.22 seconds =       0.00 minutes
	system time =       0.01 seconds =       0.00 minutes
	total time  =          0 seconds =       0.00 minutes
Total time:
	user time   =       3.60 seconds =       0.06 minutes
	system time =       0.12 seconds =       0.00 minutes
	total time  =          5 seconds =       0.08 minutes

  //>>>>>>>>>>>>>>>>>>>>>>>>>>>>>>>>>>>//
  //    Loading displacement 4 of 6    //
  //<<<<<<<<<<<<<<<<<<<<<<<<<<<<<<<<<<<//
gradient() will perform analytic gradient computation.

*** tstart() called on markus-GA-MA770-UD3
*** at Tue Nov 15 18:06:28 2016


         ---------------------------------------------------------
                                   SCF
            by Justin Turney, Rob Parrish, and Andy Simmonett
                              RHF Reference
                        1 Threads,    250 MiB Core
         ---------------------------------------------------------

  ==> Geometry <==

    Molecular point group: c2v
    Full point group: C2v

    Geometry (in Angstrom), charge = 0, multiplicity = 1:

       Center              X                  Y                   Z               Mass       
    ------------   -----------------  -----------------  -----------------  -----------------
           O          0.000000000000     0.000000000000    -0.064716289330    15.994914619560
           H          0.000000000000    -0.747182349571     0.513547237563     1.007825032070
           H          0.000000000000     0.747182349571     0.513547237563     1.007825032070

  Running in c2v symmetry.

  Rotational constants: A =     28.16276  B =     14.98056  C =      9.77889 [cm^-1]
  Rotational constants: A = 844298.19575  B = 449105.99358  C = 293163.87190 [MHz]
  Nuclear repulsion =    9.315509797172044

  Charge       = 0
  Multiplicity = 1
  Electrons    = 10
  Nalpha       = 5
  Nbeta        = 5

  ==> Algorithm <==

  SCF Algorithm Type is DF.
  DIIS enabled.
  MOM disabled.
  Fractional occupation disabled.
  Guess Type is SAD.
  Energy threshold   = 1.00e-08
  Density threshold  = 1.00e-08
  Integral threshold = 0.00e+00

  ==> Primary Basis <==

  Basis Set: CC-PVDZ
    Number of shells: 12
    Number of basis function: 24
    Number of Cartesian functions: 25
    Spherical Harmonics?: true
    Max angular momentum: 2

  ==> Pre-Iterations <==

   -------------------------------------------------------
    Irrep   Nso     Nmo     Nalpha   Nbeta   Ndocc  Nsocc
   -------------------------------------------------------
     A1        11      11       0       0       0       0
     A2         2       2       0       0       0       0
     B1         4       4       0       0       0       0
     B2         7       7       0       0       0       0
   -------------------------------------------------------
    Total      24      24       5       5       5       0
   -------------------------------------------------------

  ==> Integral Setup <==

  ==> DFJK: Density-Fitted J/K Matrices <==

    J tasked:                  Yes
    K tasked:                  Yes
    wK tasked:                  No
    OpenMP threads:              1
    Integrals threads:           1
    Memory (MB):               178
    Algorithm:                Core
    Integral Cache:           NONE
    Schwarz Cutoff:          1E-12
    Fitting Condition:       1E-12

   => Auxiliary Basis Set <=

  Basis Set: 
    Number of shells: 42
    Number of basis function: 116
    Number of Cartesian functions: 131
    Spherical Harmonics?: true
    Max angular momentum: 3

  Minimum eigenvalue in the overlap matrix is 3.3310711810E-02.
  Using Symmetric Orthogonalization.
  SCF Guess: Superposition of Atomic Densities via on-the-fly atomic UHF.

  ==> Iterations <==

                           Total Energy        Delta E     RMS |[F,P]|

   @DF-RHF iter   0:   -76.04837286457135   -7.60484e+01   1.26191e-01 
   @DF-RHF iter   1:   -75.99152439921968    5.68485e-02   2.06637e-02 
   @DF-RHF iter   2:   -76.01960987500965   -2.80855e-02   1.01182e-02 DIIS
   @DF-RHF iter   3:   -76.02650014164212   -6.89027e-03   1.71157e-03 DIIS
   @DF-RHF iter   4:   -76.02697707410174   -4.76932e-04   4.70481e-04 DIIS
   @DF-RHF iter   5:   -76.02702474301188   -4.76689e-05   9.69482e-05 DIIS
   @DF-RHF iter   6:   -76.02702742653754   -2.68353e-06   1.47735e-05 DIIS
   @DF-RHF iter   7:   -76.02702748947988   -6.29423e-08   1.78604e-06 DIIS
   @DF-RHF iter   8:   -76.02702749015482   -6.74945e-10   3.19407e-07 DIIS
   @DF-RHF iter   9:   -76.02702749017482   -1.99947e-11   3.00533e-08 DIIS
   @DF-RHF iter  10:   -76.02702749017492   -9.94760e-14   4.18528e-09 DIIS

  ==> Post-Iterations <==

    Orbital Energies (a.u.)
    -----------------------

    Doubly Occupied:                                                      

       1A1   -20.548220     2A1    -1.343122     1B2    -0.706062  
       3A1    -0.568853     1B1    -0.494063  

    Virtual:                                                              

       4A1     0.187639     2B2     0.258027     3B2     0.798487  
       5A1     0.866255     6A1     1.162738     2B1     1.200432  
       4B2     1.252711     7A1     1.443243     1A2     1.479967  
       3B1     1.677900     8A1     1.865037     5B2     1.949416  
       6B2     2.482823     9A1     2.522451     4B1     3.297354  
       2A2     3.351829    10A1     3.527673    11A1     3.880419  
       7B2     4.161991  

    Final Occupation by Irrep:
             A1    A2    B1    B2 
    DOCC [     3,    0,    1,    1 ]

  Energy converged.

  @DF-RHF Final Energy:   -76.02702749017492

   => Energetics <=

    Nuclear Repulsion Energy =              9.3155097971720444
    One-Electron Energy =                -123.3644329024220667
    Two-Electron Energy =                  38.0218956150750813
    DFT Exchange-Correlation Energy =       0.0000000000000000
    Empirical Dispersion Energy =           0.0000000000000000
    PCM Polarization Energy =               0.0000000000000000
    EFP Energy =                            0.0000000000000000
    Total Energy =                        -76.0270274901749445


  Saving occupied orbitals to File 180.

*** tstop() called on markus-GA-MA770-UD3 at Tue Nov 15 18:06:28 2016
Module time:
	user time   =       0.37 seconds =       0.01 minutes
	system time =       0.01 seconds =       0.00 minutes
	total time  =          0 seconds =       0.00 minutes
Total time:
	user time   =       4.04 seconds =       0.07 minutes
	system time =       0.13 seconds =       0.00 minutes
	total time  =          5 seconds =       0.08 minutes


Properties will be evaluated at   0.000000,   0.000000,   0.000000 Bohr

Properties computed using the SCF density matrix

  Nuclear Dipole Moment: (a.u.)
     X:     0.0000      Y:     0.0000      Z:     0.9626

  Electronic Dipole Moment: (a.u.)
     X:     0.0000      Y:     0.0000      Z:    -0.1582

  Dipole Moment: (a.u.)
     X:     0.0000      Y:     0.0000      Z:     0.8043     Total:     0.8043

  Dipole Moment: (Debye)
     X:     0.0000      Y:     0.0000      Z:     2.0444     Total:     2.0444


*** tstart() called on markus-GA-MA770-UD3
*** at Tue Nov 15 18:06:28 2016


         ------------------------------------------------------------
                                   SCF GRAD                          
                          Rob Parrish, Justin Turney,                
                       Andy Simmonett, and Alex Sokolov              
         ------------------------------------------------------------

  ==> Geometry <==

    Molecular point group: c2v
    Full point group: C2v

    Geometry (in Angstrom), charge = 0, multiplicity = 1:

       Center              X                  Y                   Z               Mass       
    ------------   -----------------  -----------------  -----------------  -----------------
           O          0.000000000000     0.000000000000    -0.064716289330    15.994914619560
           H          0.000000000000    -0.747182349571     0.513547237563     1.007825032070
           H          0.000000000000     0.747182349571     0.513547237563     1.007825032070

  Nuclear repulsion =    9.315509797172044

  ==> Basis Set <==

  Basis Set: CC-PVDZ
    Number of shells: 12
    Number of basis function: 24
    Number of Cartesian functions: 25
    Spherical Harmonics?: true
    Max angular momentum: 2

  ==> DFJKGrad: Density-Fitted SCF Gradients <==

    Gradient:                    1
    J tasked:                  Yes
    K tasked:                  Yes
    wK tasked:                  No
    OpenMP threads:              1
    Integrals threads:           1
    Memory (MB):               178
    Schwarz Cutoff:          0E+00
    Fitting Condition:       1E-12

   => Auxiliary Basis Set <=

  Basis Set: 
    Number of shells: 42
    Number of basis function: 116
    Number of Cartesian functions: 131
    Spherical Harmonics?: true
    Max angular momentum: 3


  -Total Gradient:
     Atom            X                  Y                   Z
    ------   -----------------  -----------------  -----------------
       1       -0.000000000000     0.000000000000     0.001758090764
       2       -0.000000000000     0.001562594537    -0.000879045382
       3        0.000000000000    -0.001562594537    -0.000879045382


[...]
    One-Electron Energy =                -123.3387186378612341
    Two-Electron Energy =                  38.0109922304677283
    DFT Exchange-Correlation Energy =       0.0000000000000000
    Empirical Dispersion Energy =           0.0000000000000000
    PCM Polarization Energy =               0.0000000000000000
    EFP Energy =                            0.0000000000000000
    Total Energy =                        -76.0270243365160070


  Saving occupied orbitals to File 180.

*** tstop() called on markus-GA-MA770-UD3 at Tue Nov 15 18:06:29 2016
Module time:
	user time   =       0.35 seconds =       0.01 minutes
	system time =       0.01 seconds =       0.00 minutes
	total time  =          0 seconds =       0.00 minutes
Total time:
	user time   =       4.68 seconds =       0.08 minutes
	system time =       0.16 seconds =       0.00 minutes
	total time  =          6 seconds =       0.10 minutes


Properties will be evaluated at   0.000000,   0.000000,   0.000000 Bohr

Properties computed using the SCF density matrix

  Nuclear Dipole Moment: (a.u.)
     X:     0.0000      Y:     0.0027      Z:     0.9626

  Electronic Dipole Moment: (a.u.)
     X:     0.0000      Y:    -0.0014      Z:    -0.1585

  Dipole Moment: (a.u.)
     X:     0.0000      Y:     0.0012      Z:     0.8041     Total:     0.8041

  Dipole Moment: (Debye)
     X:     0.0000      Y:     0.0032      Z:     2.0438     Total:     2.0438


*** tstart() called on markus-GA-MA770-UD3
*** at Tue Nov 15 18:06:29 2016


         ------------------------------------------------------------
                                   SCF GRAD                          
                          Rob Parrish, Justin Turney,                
                       Andy Simmonett, and Alex Sokolov              
         ------------------------------------------------------------

  ==> Geometry <==

    Molecular point group: cs
    Full point group: Cs

    Geometry (in Angstrom), charge = 0, multiplicity = 1:

       Center              X                  Y                   Z               Mass       
    ------------   -----------------  -----------------  -----------------  -----------------
           O          0.000000000000    -0.000178969871    -0.064716289330    15.994914619560
           H          0.000000000000    -0.747625805335     0.512450850185     1.007825032070
           H          0.000000000000     0.750466187057     0.514643624942     1.007825032070

  Nuclear repulsion =    9.300702070877497

  ==> Basis Set <==

  Basis Set: CC-PVDZ
    Number of shells: 12
    Number of basis function: 24
    Number of Cartesian functions: 25
    Spherical Harmonics?: true
    Max angular momentum: 2

  ==> DFJKGrad: Density-Fitted SCF Gradients <==

    Gradient:                    1
    J tasked:                  Yes
    K tasked:                  Yes
    wK tasked:                  No
    OpenMP threads:              1
    Integrals threads:           1
    Memory (MB):               178
    Schwarz Cutoff:          0E+00
    Fitting Condition:       1E-12

   => Auxiliary Basis Set <=

  Basis Set: 
    Number of shells: 42
    Number of basis function: 116
    Number of Cartesian functions: 131
    Spherical Harmonics?: true
    Max angular momentum: 3


  -Total Gradient:
     Atom            X                  Y                   Z
    ------   -----------------  -----------------  -----------------
       1        0.000000000000    -0.003631990781     0.000104953989
       2        0.000000000000     0.001754902334    -0.001454626940
       3        0.000000000000     0.001877088446     0.001349672951


*** tstop() called on markus-GA-MA770-UD3 at Tue Nov 15 18:06:29 2016
Module time:
	user time   =       0.22 seconds =       0.00 minutes
	system time =       0.01 seconds =       0.00 minutes
	total time  =          0 seconds =       0.00 minutes
Total time:
	user time   =       4.90 seconds =       0.08 minutes
	system time =       0.17 seconds =       0.00 minutes
	total time  =          6 seconds =       0.10 minutes

  //>>>>>>>>>>>>>>>>>>>>>>>>>>>>>>>>>>>//
  //    Loading displacement 6 of 6    //
  //<<<<<<<<<<<<<<<<<<<<<<<<<<<<<<<<<<<//
gradient() will perform analytic gradient computation.

*** tstart() called on markus-GA-MA770-UD3
*** at Tue Nov 15 18:06:29 2016


         ---------------------------------------------------------
                                   SCF
            by Justin Turney, Rob Parrish, and Andy Simmonett
                              RHF Reference
                        1 Threads,    250 MiB Core
         ---------------------------------------------------------

  ==> Geometry <==

    Molecular point group: c2v
    Full point group: C2v

    Geometry (in Angstrom), charge = 0, multiplicity = 1:

       Center              X                  Y                   Z               Mass       
    ------------   -----------------  -----------------  -----------------  -----------------
           O          0.000000000000     0.000000000000    -0.064716289330    15.994914619560
           H          0.000000000000    -0.749045996196     0.513547237563     1.007825032070
           H          0.000000000000     0.749045996196     0.513547237563     1.007825032070

  Running in c2v symmetry.

  Rotational constants: A =     28.16276  B =     14.90611  C =      9.74711 [cm^-1]
  Rotational constants: A = 844298.19575  B = 446873.99804  C = 292211.14898 [MHz]
  Nuclear repulsion =    9.300665064622281

  Charge       = 0
  Multiplicity = 1
  Electrons    = 10
  Nalpha       = 5
  Nbeta        = 5

  ==> Algorithm <==

  SCF Algorithm Type is DF.
  DIIS enabled.
  MOM disabled.
  Fractional occupation disabled.
  Guess Type is SAD.
  Energy threshold   = 1.00e-08
  Density threshold  = 1.00e-08
  Integral threshold = 0.00e+00

  ==> Primary Basis <==

  Basis Set: CC-PVDZ
    Number of shells: 12
    Number of basis function: 24
    Number of Cartesian functions: 25
    Spherical Harmonics?: true
    Max angular momentum: 2

  ==> Pre-Iterations <==

   -------------------------------------------------------
    Irrep   Nso     Nmo     Nalpha   Nbeta   Ndocc  Nsocc
   -------------------------------------------------------
     A1        11      11       0       0       0       0
     A2         2       2       0       0       0       0
     B1         4       4       0       0       0       0
     B2         7       7       0       0       0       0
   -------------------------------------------------------
    Total      24      24       5       5       5       0
   -------------------------------------------------------

  ==> Integral Setup <==

  ==> DFJK: Density-Fitted J/K Matrices <==

    J tasked:                  Yes
    K tasked:                  Yes
    wK tasked:                  No
    OpenMP threads:              1
    Integrals threads:           1
    Memory (MB):               178
    Algorithm:                Core
    Integral Cache:           NONE
    Schwarz Cutoff:          1E-12
    Fitting Condition:       1E-12

   => Auxiliary Basis Set <=

  Basis Set: 
    Number of shells: 42
    Number of basis function: 116
    Number of Cartesian functions: 131
    Spherical Harmonics?: true
    Max angular momentum: 3

  Minimum eigenvalue in the overlap matrix is 3.3431282539E-02.
  Using Symmetric Orthogonalization.
  SCF Guess: Superposition of Atomic Densities via on-the-fly atomic UHF.

  ==> Iterations <==

                           Total Energy        Delta E     RMS |[F,P]|

   @DF-RHF iter   0:   -76.04490636813344   -7.60449e+01   1.25774e-01 
   @DF-RHF iter   1:   -75.99150170837704    5.34047e-02   2.06523e-02 
   @DF-RHF iter   2:   -76.01959007544905   -2.80884e-02   1.01293e-02 DIIS
   @DF-RHF iter   3:   -76.02650040936810   -6.91033e-03   1.71491e-03 DIIS
   @DF-RHF iter   4:   -76.02698161882839   -4.81209e-04   4.72923e-04 DIIS
   @DF-RHF iter   5:   -76.02702994731223   -4.83285e-05   9.74547e-05 DIIS
   @DF-RHF iter   6:   -76.02703266488638   -2.71757e-06   1.48635e-05 DIIS
   @DF-RHF iter   7:   -76.02703272866471   -6.37783e-08   1.80348e-06 DIIS
   @DF-RHF iter   8:   -76.02703272935352   -6.88814e-10   3.22075e-07 DIIS
   @DF-RHF iter   9:   -76.02703272937384   -2.03215e-11   3.02074e-08 DIIS
   @DF-RHF iter  10:   -76.02703272937400   -1.56319e-13   4.21347e-09 DIIS

  ==> Post-Iterations <==

    Orbital Energies (a.u.)
    -----------------------

    Doubly Occupied:                                                      

       1A1   -20.548408     2A1    -1.342234     1B2    -0.705525  
       3A1    -0.568294     1B1    -0.493901  

    Virtual:                                                              

       4A1     0.187428     2B2     0.257800     3B2     0.797880  
       5A1     0.864177     6A1     1.162737     2B1     1.200484  
       4B2     1.252644     7A1     1.444706     1A2     1.479104  
       3B1     1.678366     8A1     1.865637     5B2     1.946914  
       6B2     2.479681     9A1     2.518360     4B1     3.295277  
       2A2     3.350895    10A1     3.525058    11A1     3.879921  
       7B2     4.159468  

    Final Occupation by Irrep:
             A1    A2    B1    B2 
    DOCC [     3,    0,    1,    1 ]

  Energy converged.

  @DF-RHF Final Energy:   -76.02703272937400

   => Energetics <=

    Nuclear Repulsion Energy =              9.3006650646222813
    One-Electron Energy =                -123.3386693896471229
    Two-Electron Energy =                  38.0109715956508296
    DFT Exchange-Correlation Energy =       0.0000000000000000
    Empirical Dispersion Energy =           0.0000000000000000
    PCM Polarization Energy =               0.0000000000000000
    EFP Energy =                            0.0000000000000000
    Total Energy =                        -76.0270327293740138


  Saving occupied orbitals to File 180.

*** tstop() called on markus-GA-MA770-UD3 at Tue Nov 15 18:06:30 2016
Module time:
	user time   =       0.35 seconds =       0.01 minutes
	system time =       0.02 seconds =       0.00 minutes
	total time  =          1 seconds =       0.02 minutes
Total time:
	user time   =       5.31 seconds =       0.09 minutes
	system time =       0.19 seconds =       0.00 minutes
	total time  =          7 seconds =       0.12 minutes


Properties will be evaluated at   0.000000,   0.000000,   0.000000 Bohr

Properties computed using the SCF density matrix

  Nuclear Dipole Moment: (a.u.)
     X:     0.0000      Y:     0.0000      Z:     0.9626

  Electronic Dipole Moment: (a.u.)
     X:     0.0000      Y:     0.0000      Z:    -0.1585

  Dipole Moment: (a.u.)
     X:     0.0000      Y:     0.0000      Z:     0.8041     Total:     0.8041

  Dipole Moment: (Debye)
     X:     0.0000      Y:     0.0000      Z:     2.0438     Total:     2.0438


*** tstart() called on markus-GA-MA770-UD3
*** at Tue Nov 15 18:06:30 2016


         ------------------------------------------------------------
                                   SCF GRAD                          
                          Rob Parrish, Justin Turney,                
                       Andy Simmonett, and Alex Sokolov              
         ------------------------------------------------------------

  ==> Geometry <==

    Molecular point group: c2v
    Full point group: C2v

    Geometry (in Angstrom), charge = 0, multiplicity = 1:

       Center              X                  Y                   Z               Mass       
    ------------   -----------------  -----------------  -----------------  -----------------
           O          0.000000000000     0.000000000000    -0.064716289330    15.994914619560
           H          0.000000000000    -0.749045996196     0.513547237563     1.007825032070
           H          0.000000000000     0.749045996196     0.513547237563     1.007825032070

  Nuclear repulsion =    9.300665064622281

  ==> Basis Set <==

  Basis Set: CC-PVDZ
    Number of shells: 12
    Number of basis function: 24
    Number of Cartesian functions: 25
    Spherical Harmonics?: true
    Max angular momentum: 2

  ==> DFJKGrad: Density-Fitted SCF Gradients <==

    Gradient:                    1
    J tasked:                  Yes
    K tasked:                  Yes
    wK tasked:                  No
    OpenMP threads:              1
    Integrals threads:           1
    Memory (MB):               178
    Schwarz Cutoff:          0E+00
    Fitting Condition:       1E-12

   => Auxiliary Basis Set <=

  Basis Set: 
    Number of shells: 42
    Number of basis function: 116
    Number of Cartesian functions: 131
    Spherical Harmonics?: true
    Max angular momentum: 3


  -Total Gradient:
     Atom            X                  Y                   Z
    ------   -----------------  -----------------  -----------------
       1        0.000000000000     0.000000000000     0.000085865421
       2        0.000000000000    -0.000072678635    -0.000042932710
       3       -0.000000000000     0.000072678635    -0.000042932710


*** tstop() called on markus-GA-MA770-UD3 at Tue Nov 15 18:06:30 2016
Module time:
	user time   =       0.23 seconds =       0.00 minutes
	system time =       0.01 seconds =       0.00 minutes
	total time  =          0 seconds =       0.00 minutes
Total time:
	user time   =       5.55 seconds =       0.09 minutes
	system time =       0.20 seconds =       0.00 minutes
	total time  =          7 seconds =       0.12 minutes

-------------------------------------------------------------

  Computing second-derivative from gradients using projected, 
  symmetry-adapted, cartesian coordinates (fd_freq_1).

  6 gradients passed in, including the reference geometry.
  Generating complete list of displacements from unique ones.

	Operation 2 takes plus displacements of irrep B2 to minus ones.

	  Irrep      Harmonic Frequency   
	                  (cm-1)          
	-----------------------------------------------
	     A1         1775.6480  
	     A1         4113.3794  
	     B2         4212.1816  
	-----------------------------------------------

	Normal Modes (non-mass-weighted).
	Molecular mass is   18.01056 amu.
	Frequencies in cm^-1; force constants in au.

   Frequency:       1775.65
   Force constant:   0.1193
	     X       Y       Z           mass	
  O 	   0.000   0.000  -0.068      15.994915
  H 	   0.000   0.416   0.536       1.007825
  H 	   0.000  -0.416   0.536       1.007825

   Frequency:       4113.38
   Force constant:   0.6403
	     X       Y       Z           mass	
  O 	   0.000   0.000   0.049      15.994915
  H 	   0.000   0.569  -0.392       1.007825
  H 	   0.000  -0.569  -0.392       1.007825

   Frequency:       4212.18
   Force constant:   0.6714
	     X       Y       Z           mass	
  O 	   0.000   0.068   0.000      15.994915
  H 	   0.000  -0.537   0.414       1.007825
  H 	   0.000  -0.537  -0.414       1.007825

-------------------------------------------------------------

 #  #
 Irrep: 1
      1: 1775.6479835
      2: 4113.3793890
      3: 4212.1816227


            *********************************************
            * Thermodynamic Analysis by R.A. King, 2012 *
            *********************************************

  ==> Inputs to Thermochemistry <==

  Temperature:                       298.15 [K]
  Pressure:                       101325.00 [Pa]
  Multiplicity:                           1
  Full point group:                 Cnv (C2v)
  Rotor type:                ASYMMETRIC_TOP
  Rotational symmetry no.:                2
  Rotational constants: A =     28.16276  B =     14.90611  C =      9.74711 [cm^-1]
  Rotational constants: A = 844298.19575  B = 446873.99804  C = 292211.14898 [MHz]

  No.    Vib. Freq. [cm^-1]      Vib. Temp. [K]
    1              1775.648            2554.758
    2              4113.379            5918.228
    3              4212.182            6060.382

  ==> Components <==

  Entropy, S
    Electronic S          0.000 [cal/(mol K)]       0.000 [J/(mol K)]      0.00000000 [mEh/K] (multiplicity = 1)
    Translational S      34.608 [cal/(mol K)]     144.801 [J/(mol K)]      0.05515186 [mEh/K] (mol. weight = 18.0106 [u], P = 101325.00 [Pa])
    Rotational S         10.376 [cal/(mol K)]      43.414 [J/(mol K)]      0.01653569 [mEh/K] (symmetry no. = 2)
    Vibrational S         0.004 [cal/(mol K)]       0.015 [J/(mol K)]      0.00000576 [mEh/K]
  Total S                44.988 [cal/(mol K)]     188.231 [J/(mol K)]      0.07169331 [mEh/K]

  Constant volume heat capacity, Cv
    Electronic Cv         0.000 [cal/(mol K)]       0.000 [J/(mol K)]      0.00000000 [mEh/K]
    Translational Cv      2.981 [cal/(mol K)]      12.472 [J/(mol K)]      0.00475022 [mEh/K]
    Rotational Cv         2.981 [cal/(mol K)]      12.472 [J/(mol K)]      0.00475022 [mEh/K]
    Vibrational Cv        0.028 [cal/(mol K)]       0.116 [J/(mol K)]      0.00004419 [mEh/K]
  Total Cv                5.989 [cal/(mol K)]      25.059 [J/(mol K)]      0.00954463 [mEh/K]

  Constant pressure heat capacity, Cp
    Electronic Cp         0.000 [cal/(mol K)]       0.000 [J/(mol K)]      0.00000000 [mEh/K]
    Translational Cp      4.968 [cal/(mol K)]      20.786 [J/(mol K)]      0.00791704 [mEh/K]
    Rotational Cp         2.981 [cal/(mol K)]      12.472 [J/(mol K)]      0.00475022 [mEh/K]
    Vibrational Cp        0.028 [cal/(mol K)]       0.116 [J/(mol K)]      0.00004419 [mEh/K]
  Total Cp                7.977 [cal/(mol K)]      33.374 [J/(mol K)]      0.01271145 [mEh/K]

  ==> Energy Analysis <== 

  Raw electronic energy, E0
  Total E0, Electronic energy at well bottom at 0 [K]              -76.02703273 [Eh]

  Zero-point energy, ZPE_vib = Sum_i nu_i / 2
    Electronic ZPE        0.000 [kcal/mol]       0.000 [kJ/mol]      0.00000000 [Eh]
    Translational ZPE     0.000 [kcal/mol]       0.000 [kJ/mol]      0.00000000 [Eh]
    Rotational ZPE        0.000 [kcal/mol]       0.000 [kJ/mol]      0.00000000 [Eh]
    Vibrational ZPE      14.440 [kcal/mol]      60.419 [kJ/mol]      0.02301225 [Eh]        5050.604 [cm^-1]
    Correction ZPE       14.440 [kcal/mol]      60.419 [kJ/mol]      0.02301225 [Eh]        5050.604 [cm^-1]
  Total ZPE, Electronic energy at 0 [K]                            -76.00402048 [Eh]

  Thermal Energy, E (includes ZPE)
    Electronic E          0.000 [kcal/mol]       0.000 [kJ/mol]      0.00000000 [Eh]
    Translational E       0.889 [kcal/mol]       3.718 [kJ/mol]      0.00141628 [Eh]
    Rotational E          0.889 [kcal/mol]       3.718 [kJ/mol]      0.00141628 [Eh]
    Vibrational E        14.441 [kcal/mol]      60.423 [kJ/mol]      0.02301378 [Eh]
  Correction E           16.219 [kcal/mol]      67.860 [kJ/mol]      0.02584634 [Eh]
  Total E, Electronic energy at  298.15 [K]                        -76.00118639 [Eh]

  Enthalpy, H_trans = E_trans + k_B * T
    Electronic H          0.000 [kcal/mol]       0.000 [kJ/mol]      0.00000000 [Eh]
    Translational H       1.481 [kcal/mol]       6.197 [kJ/mol]      0.00236046 [Eh]
    Rotational H          0.889 [kcal/mol]       3.718 [kJ/mol]      0.00141628 [Eh]
    Vibrational H        14.441 [kcal/mol]      60.423 [kJ/mol]      0.02301378 [Eh]
  Correction H           16.811 [kcal/mol]      70.339 [kJ/mol]      0.02679052 [Eh]
  Total H, Enthalpy at  298.15 [K]                                 -76.00024221 [Eh]

  Gibbs free energy, G = H - T * S
    Electronic G         -0.000 [kcal/mol]      -0.000 [kJ/mol]     -0.00000000 [Eh]
    Translational G      -8.837 [kcal/mol]     -36.975 [kJ/mol]     -0.01408306 [Eh]
    Rotational G         -2.205 [kcal/mol]      -9.226 [kJ/mol]     -0.00351384 [Eh]
    Vibrational G        14.440 [kcal/mol]      60.418 [kJ/mol]      0.02301206 [Eh]
  Correction G            3.398 [kcal/mol]      14.218 [kJ/mol]      0.00541516 [Eh]
  Total G, Free enthalpy at  298.15 [K]                            -76.02161757 [Eh]


*** Psi4 exiting successfully. Buy a developer a beer!
